ITEM: TIMESTEP
200
ITEM: NUMBER OF ATOMS
540
ITEM: BOX BOUNDS pp pp pp
0 32
0 32
0 96
ITEM: ATOMS id type xu yu zu 
1 1 8.66788 30.482 17.3511 
2 1 29.6188 29.0463 13.3502 
3 1 25.0639 0.74717 4.11926 
4 1 6.0788 3.86832 23.3789 
5 1 8.23811 25.6106 12.8641 
6 1 5.8699 5.96938 4.77041 
7 1 28.6614 14.8656 17.0463 
8 1 20.4378 12.4724 4.65576 
9 1 14.8413 19.9784 1.26746 
10 1 24.3007 7.08142 13.883 
11 1 25.5381 20.5569 0.209539 
12 1 13.9525 17.5593 4.90377 
13 1 5.22969 22.7108 4.85631 
14 1 25.0248 23.3608 10.9575 
15 1 25.9077 8.97277 2.44195 
16 1 14.5342 10.2737 13.4581 
17 1 7.8616 21.1591 23.8048 
18 1 25.2372 10.6385 23.1345 
19 1 28.0057 9.73656 10.0034 
20 1 31.4619 7.55154 22.041 
21 1 12.2096 19.7906 14.4506 
22 1 13.366 1.82961 22.3425 
23 1 22.8368 1.4671 7.78376 
24 1 1.36461 7.27171 17.498 
25 1 3.49242 11.4411 22.9458 
26 1 4.02602 21.0287 21.4163 
27 1 2.59444 27.5241 23.3454 
28 1 10.2406 5.68627 23.6393 
29 1 4.29818 15.1916 8.55833 
30 1 20.7915 4.89255 9.61251 
31 1 14.8824 28.4625 13.809 
32 1 5.37143 26.5368 20.1214 
33 1 3.87033 19.5415 7.54786 
34 1 6.27784 4.37106 12.4923 
35 1 17.5267 4.79756 1.61018 
36 1 6.53355 16.646 12.5458 
37 1 27.9011 14.48 9.46579 
38 1 23.4517 28.7001 12.437 
39 1 10.3531 8.02495 7.0623 
40 1 11.7457 11.9461 8.41516 
41 1 25.8582 11.1526 6.23743 
42 1 30.5997 6.7418 8.18731 
43 1 8.36983 19.0529 16.7232 
44 1 19.9668 2.39273 22.6841 
45 1 9.90066 4.75276 17.8635 
46 1 0.684162 29.5661 18.8928 
47 1 4.26604 3.99997 18.5716 
48 1 0.0214046 16.0955 8.10611 
49 1 33.0587 15.4 16.5678 
50 1 12.104 6.69239 10.8435 
51 1 19.9038 5.84581 14.1508 
52 1 11.2841 15.6837 19.5294 
53 1 2.72907 11.3629 16.4327 
54 1 24.5879 32.0355 22.2144 
55 1 18.5223 16.3819 5.64469 
56 1 0.67081 15.2394 21.2045 
57 1 28.2222 26.3295 10.4437 
58 1 17.1641 2.19087 4.6421 
59 1 18.3657 22.894 0.0740268 
60 1 5.96877 20.9215 11.973 
61 1 4.91336 7.80595 14.8382 
62 1 8.69035 9.92851 13.6578 
63 1 11.2793 29.8869 20.7841 
64 1 14.9597 30.8422 18.0056 
65 1 11.1138 14.6547 3.19097 
66 1 12.6041 31.2836 9.64788 
67 1 8.7049 14.0156 15.3524 
68 1 11.7751 27.1884 10.777 
69 1 27.6771 13.9202 21.2701 
70 1 29.993 17.9718 11.6864 
71 1 15.8427 26.314 17.5788 
72 1 17.2268 -0.554535 7.6471 
73 1 5.77892 17.2425 23.1679 
74 1 9.15303 27.9792 7.21611 
75 1 5.42554 16.3802 18.607 
76 1 8.607 23.4908 20.1617 
77 1 1.50234 14.3245 1.78536 
78 1 4.68027 29.3488 6.69267 
80 1 29.5524 12.5626 1.00447 
81 1 3.61932 22.6809 0.73163 
82 1 19.9968 17.4116 22.9867 
83 1 4.2515 0.00482856 13.7133 
84 1 9.76984 0.55157 3.30125 
86 1 3.28992 18.8805 14.974 
87 1 24.1283 20.7648 14.5289 
88 1 8.55868 22.0378 2.09868 
89 1 -0.0171828 3.86223 15.1871 
90 1 8.59581 14.8701 9.06291 
91 1 20.7492 20.0373 3.37655 
92 1 2.60337 25.6322 16.9102 
93 1 7.54916 1.51667 6.95644 
94 1 28.4023 2.47979 20.1217 
95 1 27.9673 3.82213 3.00905 
96 1 20.7149 7.43712 6.05422 
97 1 27.7841 28.1227 22.688 
98 1 19.4521 21.484 21.1158 
99 1 9.68402 0.435072 12.7656 
100 1 30.4926 12.6663 5.81419 
101 1 17.0508 10.7692 9.32763 
102 1 14.2306 2.7801 7.65198 
103 1 7.14253 8.30895 19.3815 
104 1 24.1355 22.1283 20.2148 
105 1 13.6286 0.356385 4.32151 
106 1 11.129 25.9344 3.50539 
107 1 13.7242 25.8315 21.5781 
108 1 0.546897 4.05395 4.79853 
109 1 14.3818 13.9948 16.8312 
110 1 1.10386 6.61757 11.9501 
111 1 31.2071 22.2776 4.0773 
112 1 16.562 5.03179 10.2712 
113 1 21.4937 11.6713 8.99907 
114 1 19.0892 27.2818 20.429 
115 1 25.3071 17.4539 6.85126 
116 1 28.0301 26.8668 18.5546 
117 1 0.786467 25.3649 9.99784 
118 1 9.17948 8.25124 2.83375 
119 1 20.4104 26.8366 1.02916 
120 1 21.4518 30.7817 19.3999 
121 1 2.90349 5.7102 8.05212 
123 1 4.76225 23.8137 9.01358 
124 1 1.42995 22.7526 13.7699 
125 1 3.43654 13.5241 12.5516 
126 1 29.1519 22.8262 8.11151 
127 1 29.4941 23.2333 15.9686 
209 1 0.710945 3.67517 23.954 
220 1 28.5909 0.20552 23.8058 
85 1 12.9145 3.91402 0.081411 
128 1 7.7067 5.57778 46.8903 
129 1 10.241 28.0163 25.0462 
130 1 27.8687 3.66309 39.3956 
131 1 14.7558 15.877 29.276 
132 1 4.95433 23.9099 41.6314 
133 1 26.8292 10.5268 27.295 
134 1 26.5178 20.3302 35.9664 
135 1 17.5355 7.09137 31.4662 
136 1 18.186 11.9755 45.7208 
137 1 27.5434 6.64513 33.5806 
138 1 21.5361 29.2145 47.9918 
139 1 6.54157 13.967 26.1119 
140 1 10.2143 7.6109 29.6296 
141 1 31.7162 25.9153 38.8187 
142 1 23.3319 28.8111 36.7034 
143 1 24.6893 3.08035 35.1114 
144 1 25.5219 31.8125 39.081 
145 1 1.57451 1.46416 36.8828 
146 1 29.512 26.2766 26.1598 
147 1 8.67559 9.91314 47.3535 
148 1 27.2331 27.8304 38.7795 
149 1 22.4743 15.1155 44.2234 
150 1 0.0460751 29.6406 43.8465 
151 1 24.2302 3.32884 42.5985 
152 1 17.5995 16.5289 34.6152 
153 1 12.4281 24.1543 46.7504 
154 1 12.2784 1.36346 41.7564 
155 1 6.10025 23.8771 46.4816 
156 1 10.2133 25.9401 33.281 
157 1 7.64394 28.9527 35.3846 
158 1 17.4227 29.1212 46.67 
159 1 20.322 5.39718 43.491 
160 1 12.352 24.6737 42.236 
161 1 29.1182 32.535 28.0428 
162 1 4.12776 30.3782 27.5303 
163 1 13.9626 24.7202 31.4523 
164 1 8.82844 18.4483 37.468 
165 1 14.9026 12.7806 42.7921 
166 1 2.10104 20.94 30.8 
167 1 14.9075 12.4849 33.1895 
168 1 24.6762 28.1676 44.5905 
169 1 23.7084 23.3148 45.6098 
170 1 12.1066 0.742142 26.4522 
172 1 26.9112 1.97204 31.4595 
173 1 8.99223 1.20182 35.0431 
174 1 20.8138 20.9607 28.9827 
175 1 9.49773 20.8857 46.9801 
176 1 5.43759 5.49051 30.6562 
177 1 5.79666 25.3692 37.2113 
178 1 21.1096 16.6858 27.7288 
179 1 8.23675 12.5321 31.5502 
180 1 20.1577 2.18964 32.3057 
181 1 2.47676 1.92844 32.6118 
182 1 1.7813 28.3626 31.6268 
183 1 1.65804 14.7977 40.1492 
185 1 13.1672 29.5756 33.9568 
186 1 1.93769 20.5334 26.2595 
187 1 15.482 25.7004 25.6268 
188 1 15.7235 3.8148 33.7017 
189 1 18.3398 30.0316 28.1386 
190 1 29.3024 26.4803 42.3757 
191 1 29.4467 20.0712 28.0007 
192 1 18.2161 24.0189 32.3159 
193 1 4.73895 14.8704 30.1056 
194 1 23.2301 12.0949 36.4073 
195 1 3.11804 21.8415 36.997 
196 1 12.4675 28.3241 45.1479 
197 1 7.47963 13.2589 42.1242 
198 1 12.9882 17.8764 44.8429 
199 1 17.8331 29.8715 32.463 
200 1 18.1246 2.41139 28.3071 
201 1 28.8983 21.3092 44.8692 
202 1 7.54257 7.02887 34.2591 
203 1 3.96856 8.61771 41.4853 
204 1 8.49214 14.2031 35.6542 
205 1 25.3931 10.6977 32.5077 
206 1 27.9275 16.4084 30.3725 
207 1 3.80494 14.3439 35.8269 
208 1 16.7988 12.5692 37.9694 
210 1 27.9399 22.6239 24.746 
211 1 24.4299 21.1706 31.9263 
212 1 11.4747 10.0343 42.4749 
214 1 1.02566 4.66857 29.2211 
215 1 28.0474 27.3375 33.4782 
216 1 -0.475905 13.689 28.0787 
217 1 18.5779 15.5638 41.0327 
218 1 20.4226 20.5821 42.1497 
219 1 1.1995 13.0988 32.1259 
221 1 4.61032 0.62897 44.3089 
222 1 28.8022 2.45492 43.9126 
223 1 14.4354 32.2029 45.3559 
224 1 4.17463 7.41579 45.685 
225 1 2.88991 27.819 41.0072 
226 1 5.64471 0.187434 37.9208 
228 1 9.90934 16.6092 28.8111 
229 1 8.56176 -0.805734 42.4312 
230 1 18.9056 26.8425 37.0156 
231 1 10.6747 26.319 37.677 
232 1 24.7134 20.6772 26.7637 
233 1 24.2004 28.9645 32.3222 
234 1 19.8897 25.3012 28.4794 
235 1 12.3736 29.0535 40.7721 
236 1 16.5428 23.6219 41.7744 
237 1 20.8728 6.63822 28.148 
238 1 21.2479 5.96546 38.9693 
239 1 29.5455 16.69 35.6428 
240 1 6.37693 27.632 43.6555 
241 1 27.4522 28.3952 29.3107 
242 1 20.5321 12.7134 32.9437 
243 1 21.6023 26.975 41.4625 
244 1 11.9307 3.02536 37.664 
245 1 10.7597 16.1692 41.3038 
246 1 17.6417 22.3625 37.392 
247 1 10.9066 10.9156 26.3537 
248 1 20.0235 31.7329 36.044 
249 1 13.4956 29.1732 29.3246 
250 1 31.8185 29.2538 28.0162 
251 1 0.653683 5.53504 44.484 
252 1 29.392 31.9537 36.948 
253 1 0.840819 31.3784 24.4566 
254 1 11.5681 12.8416 45.9459 
255 1 14.2788 5.91315 40.0871 
256 1 22.9922 9.65096 42.3478 
257 1 5.52859 30.3366 31.8217 
258 1 9.44465 31.1751 46.7526 
259 1 14.7706 18.5509 39.4063 
260 1 14.356 1.43277 30.2322 
262 1 23.9199 25.573 25.0218 
263 1 17.2724 10.9502 29.0084 
264 1 6.45783 21.9631 33.0525 
265 1 31.6889 28.689 35.3236 
266 1 28.9995 21.8605 31.9659 
267 1 29.0435 26.6377 46.6834 
268 1 12.4435 23.3276 27.6106 
269 1 2.28654 18.351 34.4663 
292 1 21.7154 9.57438 46.5787 
316 1 16.0146 3.98885 47.5395 
314 1 22.8826 4.22918 46.8707 
79 1 21.8562 29.4367 24.4863 
405 1 16.1156 8.80375 47.9479 
227 1 19.6926 25.0033 24.1495 
270 1 13.1791 17.6529 59.2006 
271 1 23.025 16.6604 69.9229 
272 1 12.1094 23.4634 68.78 
273 1 19.1438 25.5778 57.6629 
274 1 23.795 16.1216 61.4009 
275 1 8.81095 19.649 51.1527 
276 1 31.2254 15.2973 58.0377 
277 1 27.8521 13.1124 56.4044 
278 1 14.9728 13.5976 60.555 
279 1 30.0454 29.9081 67.3172 
280 1 4.28449 19.7546 53.4953 
281 1 3.28965 30.9282 50.5781 
282 1 8.18836 3.31623 64.0276 
284 1 4.18148 10.9494 62.8424 
285 1 27.7993 13.9947 69.0853 
286 1 19.9848 22.5304 48.3502 
287 1 22.4307 4.58544 51.3634 
288 1 27.9056 23.297 49.1545 
289 1 18.6395 0.151997 67.6243 
290 1 23.4602 0.695825 49.7037 
291 1 22.8377 6.66316 56.5136 
293 1 8.42333 31.3252 66.4345 
294 1 1.90916 6.93385 62.4255 
295 1 23.8379 24.1481 50.5641 
296 1 23.3154 30.7612 58.824 
297 1 8.94675 12.9045 67.5928 
298 1 16.8044 7.49746 62.9229 
299 1 28.1158 26.3134 71.6151 
300 1 28.7467 26.9817 64.4189 
301 1 14.625 12.1523 67.6695 
302 1 8.97954 1.70821 52.3705 
303 1 19.55 10.7614 61.2517 
304 1 21.0683 21.3257 56.0855 
305 1 21.7215 25.3904 61.2476 
306 1 18.9683 6.60535 52.9667 
307 1 2.13812 18.4195 59.2183 
308 1 27.1939 23.1777 65.9369 
309 1 25.4705 11.4282 53.1281 
310 1 30.0628 18.2718 61.7064 
311 1 26.7092 7.29538 67.7554 
312 1 23.7249 12.1387 59.5334 
313 1 16.702 23.2813 65.6769 
315 1 2.73152 20.5682 67.9687 
317 1 25.7438 31.4147 65.596 
318 1 29.9246 26.7602 51.0256 
319 1 4.16029 20.9854 49.3787 
320 1 19.5394 6.30825 48.6682 
322 1 26.2352 5.13997 49.4337 
323 1 30.6868 10.8107 54.5554 
324 1 1.9221 7.12318 54.856 
325 1 10.4987 16.2885 48.6579 
326 1 22.9908 8.02105 61.2157 
327 1 17.9637 27.1885 63.1407 
328 1 10.752 25.3706 50.8247 
329 1 12.6919 4.12136 68.2657 
330 1 5.00466 12.6573 49.2437 
331 1 6.36493 10.9765 53.3022 
332 1 20.177 20.8969 61.6701 
333 1 25.5488 25.4625 58.6151 
334 1 6.72705 16.5315 53.7571 
335 1 15.7548 25.9955 50.0277 
336 1 14.3974 8.44696 57.361 
337 1 0.234023 9.56039 50.9964 
338 1 5.59549 4.60341 55.6841 
339 1 3.05667 32.6004 54.5863 
340 1 5.90867 17.9292 62.0667 
341 1 1.30906 17.5388 55.0423 
343 1 20.2687 22.6787 71.3697 
344 1 30.5105 22.9897 57.229 
345 1 12.2051 17.296 53.4418 
346 1 8.1154 4.27799 68.9346 
347 1 30.3129 20.2999 53.7805 
348 1 18.225 10.7717 51.3188 
349 1 23.0865 1.11535 69.7134 
350 1 2.16387 12.7761 71.282 
351 1 14.8694 7.93736 53.0499 
352 1 29.0699 24.1986 61.1567 
353 1 8.46394 8.81114 64.2876 
354 1 25.9319 2.79061 53.1593 
355 1 30.55 19.2904 67.5868 
356 1 3.7391 14.2018 59.9043 
357 1 7.24638 27.6186 49.5165 
358 1 18.6517 15.6811 48.0837 
359 1 3.34208 2.58434 64.8585 
360 1 28.2819 22.1785 70.0246 
361 1 25.081 18.8796 53.5391 
362 1 13.243 31.2141 56.5696 
363 1 21.2699 20.11 51.7994 
364 1 20.8618 20.0292 67.9218 
365 1 6.4705 16.8955 67.9392 
366 1 5.73626 20.8948 57.5392 
367 1 23.7197 28.6289 52.4591 
368 1 7.54813 6.73611 50.8916 
369 1 26.5856 22.6274 55.4062 
370 1 24.0634 22.8095 69.0658 
371 1 9.32496 17.4847 57.1221 
372 1 23.1458 22.011 64.7129 
373 1 5.23843 6.98803 66.6188 
374 1 31.0575 4.9209 58.4473 
375 1 17.4255 2.67675 51.6149 
376 1 25.9217 9.45245 56.9181 
377 1 9.00619 7.56519 54.8638 
378 1 15.8293 18.5359 49.9404 
379 1 30.3731 6.05243 49.5883 
380 1 26.1556 15.694 50.735 
381 1 27.9003 18.3884 56.9028 
382 1 7.70399 22.1652 61.3562 
383 1 13.9887 29.1028 60.5999 
384 1 17.3766 3.34594 64.5899 
385 1 17.0571 17.8345 62.6451 
386 1 9.10587 25.2914 64.0697 
387 1 19.6791 14.5261 67.5584 
389 1 26.9918 17.015 64.6027 
390 1 0.688201 13.9369 50.201 
391 1 31.329 1.94481 66.3544 
392 1 13.7604 12.1424 54.6936 
393 1 19.1329 28.8058 53.7527 
394 1 26.0961 27.7394 67.9348 
395 1 15.6056 20.8954 69.3871 
396 1 3.77943 24.2382 70.1969 
397 1 11.411 5.89271 62.2749 
398 1 27.7319 14.5578 60.5105 
399 1 13.0378 26.2329 54.5138 
400 1 28.474 1.59426 60.2182 
401 1 23.8409 8.66124 50.2305 
402 1 17.9112 6.09685 58.7718 
403 1 25.0543 28.3613 62.4542 
404 1 3.90893 8.25769 49.7941 
406 1 9.40578 11.2263 59.6102 
407 1 17.3696 8.3436 69.0646 
408 1 2.99188 13.9208 54.4601 
409 1 23.2382 6.27697 65.4148 
410 1 30.2286 6.08782 65.4305 
411 1 30.8803 12.8235 65.5467 
412 1 27.1686 18.022 70.9517 
413 1 2.48822 23.6473 59.2292 
414 1 1.2987 20.6829 63.6641 
415 1 22.7709 16.9178 65.5801 
416 1 6.38331 29.185 53.7108 
417 1 27.3528 7.29693 60.2718 
418 1 15.7236 21.4645 56.2823 
419 1 12.204 4.73267 58.0033 
213 1 12.7018 0.918387 49.3663 
184 1 26.213 29.2067 48.7176 
171 1 2.0927 3.85929 48.3453 
261 1 32.3129 29.0089 48.1746 
420 1 29.0572 0.526316 78.3048 
421 1 3.81129 14.8101 91.6973 
422 1 6.56801 24.4392 85.2519 
423 1 21.1415 20.3074 93.047 
424 1 18.9386 7.2281 75.0793 
425 1 3.92578 6.34549 88.9115 
426 1 23.4422 21.0653 84.4181 
427 1 12.323 28.6435 78.2824 
428 1 15.8521 1.79891 74.2014 
429 1 17.4124 12.6468 95.3765 
430 1 16.3105 6.27334 93.4188 
431 1 27.9965 16.5237 87.8353 
432 1 30.6128 26.0335 85.3238 
433 1 22.7584 10.8312 95.9636 
434 1 28.8316 13.8579 84.1991 
435 1 7.57024 23.6724 91.1602 
436 1 13.7349 31.3581 95.2943 
437 1 22.713 30.0802 94.0458 
438 1 1.14464 16.8916 84.145 
439 1 9.18331 22.3958 81.9722 
440 1 16.6026 16.9698 90.2753 
441 1 18.4205 4.45474 89.37 
442 1 9.7939 5.8573 91.4487 
443 1 4.95192 13.5907 77.078 
444 1 16.5072 30.5453 83.1667 
445 1 21.1329 16.1139 87.9645 
446 1 5.18752 27.5485 90.2334 
447 1 22.082 14.4542 92.0805 
448 1 28.0703 4.02035 93.1594 
449 1 10.7886 10.5606 74.7469 
450 1 5.46541 30.5032 87.0779 
451 1 16.0774 21.7957 81.037 
452 1 1.27304 2.32878 72.5898 
453 1 18.2807 31.0269 95.9226 
454 1 4.95528 10.0505 79.7449 
455 1 20.1883 8.81715 93.0207 
456 1 -0.508898 11.9373 92.8601 
457 1 23.0647 17.1906 82.41 
458 1 9.89975 26.6359 88.6577 
459 1 4.14386 27.7789 83.7249 
460 1 27.459 31.9577 95.2632 
461 1 17.0963 13.4837 86.9366 
462 1 8.17666 15.6789 91.6337 
463 1 27.151 10.8252 92.3663 
464 1 7.75611 8.59516 88.4071 
465 1 29.9987 4.7716 75.6395 
466 1 16.3171 21.875 90.1422 
467 1 12.186 21.4172 78.8157 
468 1 11.4973 21.3617 91.2652 
469 1 8.17722 29.3686 76.472 
470 1 23.2839 20.2211 75.4153 
471 1 2.40861 23.1351 86.5999 
472 1 9.06838 0.929463 86.5725 
473 1 22.664 2.06979 89.9894 
474 1 -0.640495 29.6553 87.7299 
475 1 15.0983 7.51497 87.6271 
476 1 30.6785 30.4657 74.7806 
477 1 8.70524 30.2138 91.3359 
478 1 22.2086 21.1485 88.832 
479 1 3.52009 18.7539 94.1842 
480 1 2.52693 7.54118 83.0674 
481 1 7.05389 12.8059 73.0634 
482 1 23.6191 7.24351 76.8784 
483 1 28.2965 27.4217 94.3442 
484 1 18.0006 17.3882 81.4644 
485 1 21.8239 25.0178 75.0886 
486 1 17.369 10.3913 90.1154 
487 1 10.4897 9.69468 82.3232 
488 1 18.673 8.32528 80.5448 
489 1 12.4429 2.17091 91.2618 
490 1 19.5488 18.8086 73.5875 
491 1 17.555 25.1017 84.5609 
492 1 25.7994 23.8576 88.9747 
493 1 31.8246 1.04263 94.6401 
494 1 19.5454 28.7951 85.7603 
495 1 17.4712 14.3231 75.8932 
496 1 4.16889 28.5421 74.5283 
497 1 10.881 17.5926 81.302 
498 1 26.2373 25.9956 84.6541 
499 1 30.9686 9.95162 77.435 
500 1 22.6103 26.8236 88.2606 
501 1 8.21051 5.64514 73.6246 
502 1 24.7043 7.06436 89.2758 
503 1 2.87016 24.1354 92.4486 
504 1 16.4014 22.0595 73.7664 
505 1 6.87965 29.8748 80.6477 
506 1 30.7652 25.9414 90.277 
507 1 15.613 1.05105 87.506 
508 1 0.0741943 9.1065 88.653 
509 1 10.7833 17.0331 86.032 
510 1 25.2618 3.11886 77.0196 
511 1 7.18423 5.83588 85.0106 
512 1 27.1108 17.3792 75.2805 
513 1 24.2115 4.84538 72.5493 
514 1 3.20543 11.3784 95.0326 
515 1 20.5348 3.56475 94.2018 
516 1 12.0461 21.7889 85.806 
517 1 28.7446 15.594 93.6115 
518 1 19.5884 33.1521 85.1506 
519 1 15.4776 25.8914 88.638 
520 1 20.0781 3.64106 81.5896 
521 1 14.9139 16.2575 84.3242 
522 1 13.0592 17.2969 77.353 
523 1 21.1737 17.9859 78.4915 
524 1 28.9655 9.24628 72.6774 
525 1 26.7238 11.2198 76.5771 
526 1 6.2639 2.50475 81.0629 
527 1 22.8956 8.6366 81.5962 
528 1 29.2431 17.7495 79.1461 
529 1 29.1304 30.8535 91.3407 
530 1 30.4881 20.8166 90.0991 
531 1 25.9499 23.456 74.2528 
532 1 0.811735 24.3455 81.0829 
533 1 0.0188906 3.20166 82.6872 
534 1 1.77361 31.4757 84.2885 
535 1 20.6393 21.6539 81.124 
536 1 18.4328 23.5441 77.4483 
537 1 13.3452 9.28554 91.2031 
539 1 3.15165 5.91107 77.3244 
540 1 21.2243 16.7684 95.979 
122 1 7.3542 10.1195 -0.662035 
321 1 30.9748 21.7946 73.3848 
283 1 14.7331 10.9542 72.1423 
342 1 22.5214 13.0055 72.3556 
538 1 4.90526 3.72611 95.9488 
388 1 14.8203 5.67492 72.0575 
ITEM: TIMESTEP
300
ITEM: NUMBER OF ATOMS
540
ITEM: BOX BOUNDS pp pp pp
0 32
0 32
0 96
ITEM: ATOMS id type xu yu zu 
1 1 8.27021 30.4815 17.593 
2 1 29.4206 29.4714 13.3443 
3 1 24.9971 0.53306 3.93837 
4 1 6.14642 4.27633 23.2611 
5 1 8.00996 25.5794 12.8394 
6 1 5.96612 5.98977 4.56731 
7 1 28.4413 14.6922 17.0593 
8 1 20.5031 12.5618 4.61082 
9 1 14.8248 20.0253 1.54324 
10 1 24.5736 6.99881 13.9687 
11 1 25.3697 20.5942 0.118481 
12 1 14.079 17.5198 5.16631 
13 1 5.14294 22.7043 4.66203 
14 1 24.728 23.3999 10.7952 
15 1 25.9957 8.79224 2.54723 
16 1 14.5557 10.4968 13.4252 
17 1 7.93052 21.0068 23.8785 
18 1 24.8524 10.8387 23.1839 
19 1 27.7594 9.77456 10.0493 
20 1 31.3237 7.84376 21.9551 
21 1 12.1846 19.5724 14.4115 
22 1 13.3863 2.129 22.3166 
23 1 22.8542 0.976198 7.88623 
24 1 1.22586 7.26399 17.7727 
25 1 3.23496 11.3158 22.8458 
26 1 3.90453 21.2886 21.4333 
27 1 2.72685 27.4627 23.5418 
28 1 10.4464 6.14651 23.5911 
29 1 4.37869 15.4324 8.58068 
30 1 20.9266 4.77429 9.91218 
31 1 15.1626 28.4623 13.879 
32 1 5.54241 26.5804 19.953 
33 1 3.59776 19.772 7.45474 
34 1 5.97555 4.32228 12.2642 
35 1 17.5187 4.9351 1.38397 
36 1 6.55024 16.7901 12.3129 
37 1 27.9066 14.6085 9.62508 
38 1 23.4742 28.6788 12.5091 
39 1 10.141 7.87048 6.99963 
40 1 11.901 11.8002 8.5367 
41 1 25.7336 11.4 6.38755 
42 1 30.6636 6.59825 8.0318 
43 1 8.63239 19.0828 16.9193 
44 1 19.6314 2.46398 22.5544 
45 1 9.88379 4.77913 17.6066 
46 1 0.989295 29.5911 18.8482 
47 1 4.46907 3.98928 18.1809 
48 1 -0.220508 16.1764 7.80896 
49 1 32.7259 15.3049 16.666 
50 1 12.2211 6.74295 10.6807 
51 1 19.8549 6.00121 14.2172 
52 1 11.5746 15.7228 19.641 
53 1 2.67248 11.2577 16.5422 
54 1 24.4284 32.1463 21.9978 
55 1 18.7929 16.5173 5.82038 
56 1 0.483368 15.0558 21.0724 
57 1 28.0014 26.2424 10.0353 
58 1 17.6811 2.19227 4.83916 
59 1 18.1007 23.0496 0.0563936 
60 1 6.00841 21.0758 11.9077 
61 1 4.7915 7.78293 14.842 
62 1 8.34486 9.9881 13.5154 
63 1 11.2146 29.7689 21.0849 
64 1 14.8988 30.751 18.1291 
65 1 10.881 14.5434 3.54988 
66 1 12.8052 31.1782 9.65037 
67 1 8.7606 14.1454 15.5145 
68 1 11.7488 26.866 10.7562 
69 1 27.3509 13.9978 21.3343 
70 1 30.0351 17.9666 11.5433 
71 1 15.8097 26.0316 17.5671 
72 1 17.1146 -0.818489 7.87191 
73 1 5.70185 17.1907 23.131 
74 1 9.36542 27.8409 7.2067 
75 1 5.60739 16.256 18.7074 
76 1 8.98089 23.5221 20.2636 
77 1 1.31557 14.6746 1.53194 
78 1 4.48069 29.2476 6.7424 
80 1 29.4177 12.3696 0.85078 
81 1 3.40244 22.6952 0.654206 
82 1 20.0746 17.3404 22.7951 
83 1 4.05692 0.140211 13.6984 
84 1 9.46362 0.290418 3.14 
86 1 3.40986 18.8165 15.0594 
87 1 23.8322 21.0451 14.4159 
88 1 8.85627 21.9655 2.15068 
89 1 -0.226045 4.03092 15.2774 
90 1 8.91254 14.9575 9.14549 
91 1 20.583 20.0295 3.36792 
92 1 2.31945 25.7731 16.9275 
93 1 7.76706 1.45021 6.98389 
94 1 27.9082 2.59709 20.0055 
95 1 27.9729 3.69665 2.8321 
96 1 20.8345 7.37298 6.27371 
97 1 27.6627 28.0307 22.5038 
98 1 19.4038 21.4209 21.0266 
99 1 9.39823 0.016129 12.8891 
100 1 30.3007 12.6814 5.61335 
101 1 17.0592 10.9544 9.31322 
102 1 14.1231 2.89015 7.78535 
103 1 7.61275 8.19416 19.2283 
104 1 23.9463 22.1744 20.0226 
105 1 13.9163 0.0496765 4.42246 
106 1 11.2385 25.8264 3.36094 
107 1 13.6797 25.725 21.5089 
108 1 0.427198 3.93496 4.59483 
109 1 14.6966 14.0097 16.728 
110 1 0.869602 6.69831 11.8684 
111 1 31.3866 22.1053 4.15251 
112 1 16.4783 5.16053 10.7437 
113 1 21.5593 11.9132 9.15572 
114 1 19.1032 27.2072 20.2776 
115 1 24.9775 17.6649 7.08153 
116 1 27.9328 27.08 18.2599 
117 1 0.567374 25.3895 9.9324 
118 1 9.45028 8.19446 2.70068 
119 1 20.6806 26.4573 1.09418 
120 1 21.4438 30.7046 19.0056 
121 1 2.88023 5.47172 7.81186 
123 1 4.65302 24.0273 8.91686 
124 1 1.22891 22.9693 13.5649 
125 1 3.42179 13.5519 12.7023 
126 1 28.8779 22.4562 7.87874 
127 1 29.2918 23.2715 15.7688 
220 1 28.529 0.110563 23.6616 
85 1 13.1008 3.46234 0.241821 
540 1 21.1137 16.9892 96.2149 
453 1 18.1544 31.0412 96.1224 
227 1 19.6862 24.9238 23.9745 
128 1 7.74631 5.22696 46.8457 
129 1 10.4653 27.7881 24.9355 
130 1 27.7707 3.78173 39.3188 
131 1 14.766 15.7174 29.4732 
132 1 5.02232 23.7026 41.6616 
133 1 26.7962 10.4881 27.1367 
134 1 26.4944 20.1525 35.7343 
135 1 17.5245 7.26144 31.4617 
136 1 18.2247 12.1517 45.5842 
137 1 27.5757 6.5712 33.475 
139 1 6.37329 13.9208 26.3633 
140 1 10.3141 7.92249 29.6478 
141 1 31.8208 25.8155 38.7078 
142 1 23.2038 28.9552 36.9271 
143 1 24.6223 3.32054 35.2331 
144 1 25.3543 32.1146 39.2331 
145 1 1.60678 1.72345 36.7276 
146 1 29.5335 26.2628 26.1698 
147 1 8.4341 10.0467 47.3985 
148 1 26.9535 27.9922 38.8359 
149 1 22.4068 15.0454 44.3007 
150 1 -0.043161 29.6141 43.9444 
151 1 24.3437 3.38157 42.3614 
152 1 17.8239 16.3613 34.8355 
153 1 12.4759 24.0785 46.6936 
154 1 12.3846 1.58751 41.845 
155 1 6.27759 23.9553 46.2536 
156 1 10.2146 25.9567 33.1911 
157 1 7.90356 29.0261 35.4683 
158 1 17.2178 28.7328 46.6577 
159 1 20.0094 5.62966 43.1853 
160 1 12.1642 24.805 42.289 
161 1 29.2348 32.9388 27.9938 
162 1 4.23234 30.8045 27.5962 
163 1 13.8604 24.6794 31.2263 
164 1 8.69231 18.1782 37.7191 
165 1 14.9876 12.9308 42.5695 
166 1 1.97464 20.7251 31.0736 
167 1 14.9944 12.3015 33.1591 
168 1 24.8552 27.9665 44.4692 
169 1 23.7653 23.1031 45.5632 
170 1 11.9349 0.675507 26.3835 
172 1 26.7982 1.91111 31.6918 
173 1 8.85942 1.48567 34.9528 
174 1 20.6648 20.6093 29.1414 
175 1 9.55735 20.8031 47.1339 
176 1 5.19861 5.56574 30.5279 
177 1 5.94292 25.1447 37.109 
178 1 21.0324 16.5093 27.6019 
179 1 8.05287 12.4792 31.5621 
180 1 20.1244 2.43704 32.1111 
181 1 2.55411 1.98398 32.4072 
182 1 2.04098 28.1985 31.6506 
183 1 1.59116 14.6047 40.2198 
185 1 13.15 29.8147 34.0549 
186 1 2.26605 20.6124 26.2126 
187 1 15.5761 25.7573 25.6662 
188 1 15.8828 3.76512 33.5075 
189 1 18.3015 30.1073 28.016 
190 1 29.4425 26.3925 42.3748 
191 1 29.4153 19.9375 27.95 
192 1 18.2465 24.2538 32.4968 
193 1 4.59026 15.1593 30.1917 
194 1 23.2947 12.125 36.4183 
195 1 3.08471 21.8194 36.9086 
196 1 12.2771 28.2225 45.0312 
197 1 7.38894 13.2429 41.789 
198 1 13.1955 17.5908 44.7917 
199 1 17.5345 29.7817 32.6057 
200 1 18.0417 2.63704 28.1492 
201 1 28.9362 21.3853 44.9979 
202 1 7.42003 7.25453 34.3831 
203 1 4.02158 8.89082 40.9917 
204 1 8.25818 14.3606 35.5654 
205 1 25.4232 10.8012 32.7351 
206 1 27.8949 16.4358 30.3695 
207 1 3.64324 14.2919 36.1095 
208 1 16.7791 12.7696 38.0101 
210 1 27.665 22.2849 24.3741 
211 1 24.5084 21.1878 31.6632 
212 1 11.6155 10.2538 42.2237 
214 1 1.03785 4.6098 29.2276 
215 1 28.0681 27.4272 33.3571 
216 1 -0.446914 13.6791 27.9637 
217 1 18.7555 15.6849 40.9517 
218 1 20.578 20.6219 41.9757 
219 1 1.00163 13.0194 32.32 
221 1 4.61962 0.599679 44.4057 
222 1 28.7515 2.65809 43.7437 
223 1 14.5526 32.2381 45.4106 
224 1 4.28316 7.37016 45.2527 
225 1 2.94894 28.0482 40.9656 
226 1 5.80673 0.095856 37.986 
228 1 9.88051 16.3079 28.8144 
229 1 8.56922 -0.86915 42.3346 
230 1 19.0452 26.9494 37.1361 
231 1 10.4793 26.2771 37.6831 
232 1 24.4314 20.6372 26.7763 
233 1 23.8987 29.2306 32.2182 
234 1 20.1956 25.2658 28.335 
235 1 12.3118 29.1552 40.5906 
236 1 16.5186 23.3827 42.0069 
237 1 20.5922 6.62305 28.0936 
238 1 21.2499 6.16658 38.7853 
239 1 29.5875 16.88 35.8729 
240 1 6.40816 27.589 43.7263 
241 1 27.5615 28.8681 29.1478 
242 1 20.5282 12.686 33.0321 
243 1 21.6751 26.8552 41.345 
244 1 11.9116 3.16162 37.8184 
245 1 10.7695 16.0982 41.3229 
246 1 17.4666 22.2498 37.5402 
247 1 10.8685 10.6916 26.2263 
248 1 19.7689 31.8997 36.1846 
249 1 13.4948 29.0464 29.1917 
250 1 32.0243 29.5377 27.9472 
251 1 0.416021 5.43756 44.3359 
252 1 29.3212 32.2205 36.9537 
253 1 0.959879 31.6096 24.1742 
254 1 11.6157 12.8933 45.86 
255 1 14.2683 6.06737 40.2761 
256 1 23.1651 9.77185 41.9524 
257 1 5.76125 30.6051 31.7183 
258 1 9.44616 31.1638 46.9096 
259 1 14.6488 18.3092 39.3971 
260 1 14.1601 1.50882 30.1507 
262 1 23.9371 25.5603 25.0133 
263 1 17.1193 11.1259 28.9577 
264 1 6.48051 21.9606 33.2191 
265 1 31.8082 28.8918 35.3344 
266 1 29.0869 21.8778 31.8853 
267 1 28.9487 26.4185 46.7718 
268 1 12.2569 23.1077 27.212 
269 1 2.21222 18.1288 34.5917 
292 1 21.6998 9.3816 46.1287 
316 1 15.8161 3.97438 47.5144 
314 1 22.5762 4.22514 46.6893 
79 1 21.8983 29.2865 24.454 
209 1 0.50729 3.96491 24.3082 
358 1 18.8177 15.7651 47.9061 
405 1 15.8578 8.97514 47.9762 
270 1 13.2926 17.676 59.392 
271 1 22.7214 16.698 70.0852 
272 1 11.8781 23.4236 68.6826 
273 1 19.1468 25.5928 57.8626 
274 1 23.4142 16.2159 61.2482 
275 1 8.41909 19.7763 51.2313 
276 1 31.2298 15.238 58.257 
277 1 27.4424 13.3726 56.4573 
278 1 15.0284 13.4803 60.5683 
279 1 30.2318 29.9644 67.6495 
280 1 4.51025 19.9648 53.3864 
281 1 3.52646 31.0046 50.8001 
282 1 8.34675 3.18876 64.2719 
284 1 4.52208 10.7313 62.8864 
285 1 27.9235 13.7125 69.0809 
286 1 20.0169 22.5864 48.0826 
287 1 22.4084 4.62245 51.3503 
288 1 27.8439 22.7947 49.1528 
289 1 18.6082 0.170955 67.6476 
290 1 23.3419 0.612965 49.9169 
291 1 22.5743 6.39188 56.4666 
293 1 8.66832 31.4002 66.4841 
294 1 1.80094 6.93544 62.7397 
295 1 23.7461 23.9704 50.6178 
296 1 23.4954 30.8182 59.0447 
297 1 8.90301 13.0084 67.3999 
298 1 16.644 7.62902 63.2278 
299 1 28.3287 26.4776 71.5533 
300 1 28.5694 27.3455 64.3983 
301 1 14.3301 11.9901 67.603 
302 1 8.97078 1.83184 52.9768 
303 1 19.636 10.7186 61.4685 
304 1 21.1647 21.4582 56.2078 
305 1 21.7902 25.1778 61.6175 
306 1 19.0129 6.86412 53.075 
307 1 2.63868 18.3368 59.2055 
308 1 27.1775 23.2684 66.0171 
309 1 25.7619 11.3537 52.819 
310 1 30.4018 18.34 61.5147 
311 1 26.8844 7.52428 67.9725 
312 1 23.6166 11.8774 59.5733 
313 1 16.6466 23.3163 65.8782 
315 1 2.92498 20.747 67.914 
317 1 26.0163 31.5441 65.6069 
318 1 29.7382 26.5984 51.0906 
319 1 3.89651 21.2114 49.0974 
320 1 19.3697 6.5606 48.7124 
322 1 26.1276 4.84648 49.1925 
323 1 30.7611 10.802 54.9231 
324 1 1.76954 7.12959 54.8524 
325 1 10.3656 16.6072 48.7654 
326 1 22.927 7.67209 61.0969 
327 1 17.7752 27.0402 63.154 
328 1 10.6635 25.2023 51.0004 
329 1 12.9247 3.91183 68.3123 
330 1 4.96662 12.8564 49.0778 
331 1 6.2946 10.7942 52.8734 
332 1 19.9483 21.2604 61.7656 
333 1 25.501 25.4977 58.7043 
334 1 6.9099 16.2636 53.6156 
335 1 15.5948 26.2078 49.8962 
336 1 14.3977 8.63995 57.528 
337 1 -0.0519905 9.74975 50.6943 
338 1 5.58033 4.63162 55.7926 
339 1 3.25785 32.7097 54.967 
340 1 6.16982 18.0584 62.1742 
341 1 1.15385 17.5801 55.0248 
343 1 20.0457 22.8052 71.623 
344 1 30.5204 22.9161 57.2565 
345 1 12.3338 17.5482 53.465 
346 1 8.31532 4.25516 68.7441 
347 1 30.2463 20.4672 53.5311 
348 1 18.2165 10.8938 51.1712 
349 1 23.1202 0.742675 69.8114 
350 1 2.28319 12.8306 71.23 
351 1 14.7449 8.1026 52.9915 
352 1 29.0093 24.297 61.2985 
353 1 8.48868 8.90094 64.3226 
354 1 25.9362 2.86207 53.3332 
355 1 30.642 18.9936 67.779 
356 1 4.03271 14.2704 59.7754 
357 1 7.10318 27.579 49.5917 
359 1 3.45119 2.58911 64.647 
360 1 28.2765 22.1978 70.3143 
361 1 24.6787 18.8569 53.4155 
362 1 13.2131 31.0186 56.8173 
363 1 20.8215 20.2157 51.7388 
364 1 20.6962 19.9341 67.9712 
365 1 6.80122 16.9393 68.2768 
366 1 5.86803 20.7251 57.4947 
367 1 23.971 28.5203 52.5959 
368 1 7.92357 6.38942 51.1098 
369 1 26.6002 22.775 55.2226 
370 1 24.0331 22.9714 69.2389 
371 1 9.35426 17.3868 57.2601 
372 1 23.3272 21.6476 64.7575 
373 1 5.20204 6.83878 66.6926 
374 1 31.1112 5.11366 58.3659 
375 1 17.5002 2.7937 52.103 
376 1 25.8763 9.16145 57.0044 
377 1 8.98903 7.77947 55.2133 
378 1 15.9454 18.5464 50.0447 
379 1 30.4188 5.80377 49.5667 
380 1 26.2076 15.2861 50.7242 
381 1 27.9423 18.5323 56.8286 
382 1 7.79321 22.0961 61.391 
383 1 13.9393 29.2879 60.8364 
384 1 17.43 3.24601 64.6026 
385 1 17.2396 17.9581 62.838 
386 1 9.12936 25.1784 64.3037 
387 1 19.5109 14.5679 67.812 
389 1 27.2163 16.8693 64.8999 
390 1 0.441981 14.3451 50.1826 
391 1 31.3046 1.96151 66.3875 
392 1 13.8057 12.206 54.9461 
393 1 19.1865 28.8024 53.622 
394 1 25.9965 27.8357 68.0287 
395 1 15.5412 20.9965 69.5641 
396 1 3.88165 24.4756 70.657 
397 1 11.2407 6.04729 62.6306 
398 1 27.611 14.3516 60.8403 
399 1 12.7471 26.6277 54.7029 
400 1 28.4422 1.62249 60.3353 
401 1 23.6917 8.7017 50.0469 
402 1 17.8884 6.2076 58.7767 
403 1 24.7598 28.5464 62.609 
404 1 3.98597 8.22374 49.6616 
406 1 9.28774 11.2821 59.791 
407 1 17.3086 8.1824 69.3168 
408 1 3.1858 13.6973 54.167 
409 1 23.3161 6.33677 65.3796 
410 1 30.4161 6.09529 65.4391 
411 1 31.1218 12.6531 65.8266 
412 1 27.0393 17.8856 71.1089 
413 1 2.76305 23.7193 59.4565 
414 1 1.45102 21.0058 63.8217 
415 1 22.7094 16.7036 65.5362 
416 1 6.3577 29.2401 53.7355 
417 1 27.3682 6.8375 60.4413 
418 1 15.6866 21.4113 56.5737 
419 1 12.2981 4.69852 58.1185 
213 1 12.6814 0.699487 49.5971 
184 1 26.0074 29.1492 48.8319 
171 1 2.28688 4.27735 48.3898 
261 1 32.1638 29.0049 48.3145 
138 1 21.5824 28.9569 48.0523 
420 1 28.931 0.350316 78.4822 
421 1 3.54806 14.9053 91.8682 
422 1 6.48039 24.2763 85.2219 
423 1 21.006 20.3909 93.2771 
424 1 19.0285 7.15962 75.1255 
425 1 3.75403 6.49053 88.7008 
426 1 23.3902 20.8752 84.5565 
427 1 12.5246 28.5387 78.257 
428 1 15.7616 1.6914 74.2144 
429 1 17.4124 12.4654 95.4389 
430 1 16.3483 6.62077 93.2961 
431 1 28.1592 16.3713 87.4671 
432 1 30.6522 25.8971 85.3264 
433 1 22.9074 11.0007 95.9824 
434 1 28.9542 13.7629 84.019 
435 1 7.61609 23.4496 91.1285 
436 1 13.7561 31.0177 95.3092 
437 1 22.3814 30.0889 93.9475 